8
Lattice="4.92 0.0 0.0 -2.46 4.260844986619438 0.0 0.0 -0.0 40.0" Properties=species:S:1:pos:R:3:momenta:R:3:forces:R:3 energy=-26.262592315673828 pbc="T T F"
C        0.00000000       0.00000000      20.00000000       0.43392029      -0.38570777       0.33186697       0.00000134      -0.00001112      -0.00000000
C        1.23000000       0.71014083      20.00000000       0.30892136       0.78195623      -0.17854711       0.00000113       0.00000355      -0.00000000
C       -1.23000000       2.13042249      20.00000000      -0.07475519      -0.29812008      -0.19729170      -0.00000131      -0.00000325      -0.00000000
C        0.00000000       2.84056332      20.00000000      -0.34250680       0.07239255       0.18373023      -0.00000083       0.00000978      -0.00000000
C        2.46000000       0.00000000      20.00000000      -0.40596723       0.11198064      -0.26941379      -0.00000095      -0.00000909      -0.00000000
C        3.69000000       0.71014083      20.00000000      -0.33711758      -0.94640244       0.18597313      -0.00000148       0.00000385      -0.00000000
C        1.23000000       2.13042249      20.00000000       1.38918229       0.56723440      -0.07479906       0.00000173      -0.00000381      -0.00000000
C        2.46000000       2.84056332      20.00000000      -0.97167715       0.09666648       0.01848133       0.00000018       0.00001001      -0.00000000
8
Lattice="4.92 0.0 0.0 -2.46 4.260844986619438 0.0 0.0 -0.0 40.0" Properties=species:S:1:pos:R:3:momenta:R:3:forces:R:3 energy=-26.249675750732422 pbc="T T F"
C        0.00354864      -0.00315435      20.00271404       0.42652713      -0.36914735       0.33000368      -0.15053348       0.33719802      -0.03793839
C        1.23252638       0.71653574      19.99853983       0.30120412       0.76903480      -0.17758980      -0.15713209      -0.26309696       0.01949191
C       -1.23061135       2.12798444      19.99838653      -0.07406349      -0.30051264      -0.19520362       0.01408508      -0.04871151       0.04251531
C       -0.00280105       2.84115536      20.00150256      -0.33839287       0.06609686       0.18145181       0.08376449      -0.12819630      -0.04639106
C        2.45667997       0.00091578      19.99779671      -0.40206795       0.10477865      -0.26730888       0.07939413      -0.14663061       0.04285822
C        3.68724302       0.70240108      20.00152090      -0.32590417      -0.92798931       0.18446602       0.22831786       0.37490612      -0.03068637
C        1.24136085       2.13506138      19.99938829       1.34369193       0.55948017      -0.07416364      -0.92623138      -0.15788022       0.01293769
C        2.45205354       2.84135387      20.00015114      -0.93099470       0.09825879       0.01834443       0.82833564       0.03241116      -0.00278731
