8
Lattice="4.92 0.0 0.0 -2.46 4.260844986619438 0.0 0.0 -0.0 40.0" Properties=species:S:1:pos:R:3:momenta:R:3:forces:R:3 energy=-26.249675750732422 pbc="T T F"
C        0.00354864      -0.00315435      20.00271404       0.42652713      -0.36914735       0.33000368      -0.15053348       0.33719802      -0.03793839
C        1.23252638       0.71653574      19.99853983       0.30120412       0.76903480      -0.17758980      -0.15713209      -0.26309696       0.01949191
C       -1.23061135       2.12798444      19.99838653      -0.07406349      -0.30051264      -0.19520362       0.01408508      -0.04871151       0.04251531
C       -0.00280105       2.84115536      20.00150256      -0.33839287       0.06609686       0.18145181       0.08376449      -0.12819630      -0.04639106
C        2.45667997       0.00091578      19.99779671      -0.40206795       0.10477865      -0.26730888       0.07939413      -0.14663061       0.04285822
C        3.68724302       0.70240108      20.00152090      -0.32590417      -0.92798931       0.18446602       0.22831786       0.37490612      -0.03068637
C        1.24136085       2.13506138      19.99938829       1.34369193       0.55948017      -0.07416364      -0.92623138      -0.15788022       0.01293769
C        2.45205354       2.84135387      20.00015114      -0.93099470       0.09825879       0.01834443       0.82833564       0.03241116      -0.00278731
