8
Lattice="4.92 0.0 0.0 -2.46 4.260844986619438 0.0 0.0 -0.0 40.0" Properties=species:S:1:pos:R:3:momenta:R:3:forces:R:3 energy=-26.043724060058594 pbc="T T F"
C        0.01933177       0.02342611      20.04010937       0.02561170      -0.25580281       0.27424866      -0.40015727      -0.90397060      -0.63643616
C        1.25034617       0.70993484      19.98590489       0.38154379       0.40659120      -0.12474002      -0.13282278       0.44705713       0.17718573
C       -1.25159185       2.12827625      19.94758636      -0.24507897      -0.38075019      -0.22730304       0.34682369      -0.31046230       1.11908996
C       -0.03010062       2.82624170      20.06341674       0.38675876      -0.11344594       0.26203771       1.15937364       0.20567316      -1.40233088
C        2.46267463      -0.02978398      19.95433759       0.37185950       0.37033229      -0.09379736       0.44868624       1.23958099       1.20992851
C        3.70803759       0.70981112      20.03992604      -0.48989884      -0.19434229       0.09825821      -1.13323915      -0.30559823      -0.99328792
C        1.22674978       2.14330396      20.01411978      -0.04532231      -0.15363565       0.13800825      -0.02400745      -0.53970563      -0.12748107
C        2.45455254       2.85104328      19.95459922      -0.38547364       0.32105325      -0.32671266      -0.26465759       0.16742575       0.65333170
