8
Lattice="4.92 2.46 0.0 0.0 4.260844986619438 0.0 0.0 0.0 15.0" Properties=species:S:1:pos:R:3:momenta:R:3:forces:R:3 energy=-15.12632942199707 pbc="T T T"
C        0.24209653      -0.17212393      -0.00000000      -0.05446261       0.88975783       0.17402149       0.00662147       0.01000669      -0.00000000
C        1.47177456       1.50850877       0.00000000       0.42846214      -0.95811422      -0.04697582       0.00761112      -0.01227744       0.00000000
C        1.39808763       2.94257671      -0.00000000       0.07101257      -0.47867266       0.01589988       0.00157036       0.01526660      -0.00000000
C        2.70205977       3.18850608      -0.00000000       0.22048372       0.04946315      -0.38367432       0.00035962      -0.00105505       0.00000000
C        2.62794427       0.36220018       0.00000000      -0.25464258       0.14692279      -0.25964985      -0.00084370       0.00082792       0.00000000
C        3.93190827       0.60812566       0.00000000      -0.12871068       0.62742315      -0.41185564      -0.00108825      -0.01503875       0.00000000
C        3.85822327       2.04219444      -0.00000000       0.28046032      -0.13085759       1.05567798      -0.00736016       0.01243125      -0.00000000
C        5.08790541       3.72282939      -0.00000000      -0.56260287      -0.14592245      -0.14344372      -0.00687070      -0.01015896       0.00000000
8
Lattice="4.92 2.46 0.0 0.0 4.260844986619438 0.0 0.0 0.0 15.0" Properties=species:S:1:pos:R:3:momenta:R:3:forces:R:3 energy=-15.029670715332031 pbc="T T T"
C        0.23506748      -0.12915174       0.01552458      -0.12370019      -0.04252257       0.22137403      -0.02360511      -1.11740446       0.08658223
C        1.48871766       1.44998802      -0.00428230      -0.04086552      -0.26902647      -0.06368821      -0.17343095       1.15060878      -0.03555327
C        1.41780443       2.90136820       0.00168594       0.39559430      -0.53565456       0.03137046      -0.10957161       0.00712148       0.04315118
C        2.70260573       3.18733362      -0.02742452      -0.20941616      -0.08607008      -0.23765888       0.01247581      -0.04527068       0.28757975
C        2.61564834       0.36918604      -0.02388423      -0.00774592      -0.04880772      -0.35535047       0.21108674      -0.40894195      -0.17968276
C        3.91726504       0.64145110      -0.03012638      -0.18635962       0.07495552      -0.28137329       0.24267745      -0.63377345       0.26697686
C        3.87054546       2.04442880       0.08222893      -0.08890859       0.27863881       0.90183728      -0.63060105       0.51974118      -0.33014238
C        5.07234559       3.73821327      -0.01372202       0.26140181       0.62848717      -0.21651092       0.47096726       0.52791810      -0.13891165
8
Lattice="4.92 2.46 0.0 0.0 4.260844986619438 0.0 0.0 0.0 15.0" Properties=species:S:1:pos:R:3:momenta:R:3:forces:R:3 energy=-14.998937606811523 pbc="T T T"
C        0.22628622      -0.15468721       0.03686412      -0.09166055      -0.31144825       0.29375418      -0.01025406       0.42534667       0.04869160
C        1.49428175       1.46342765      -0.01173201       0.17098821       0.34800778      -0.13432666      -0.25147486      -0.22916594      -0.13350691
C        1.42713192       2.87172599       0.00763993      -0.18513747       0.03707956       0.13385896      -0.22311865       1.25505304       0.15730590
C        2.70749480       3.18262732      -0.03331014       0.35499270      -0.04159663       0.10914684       0.14645907      -0.11120061       0.37952477
C        2.61991194       0.35122349      -0.06062680       0.14590759      -0.28549565      -0.53671534       0.39147311       0.18858048      -0.14112894
C        3.91966120       0.63686701      -0.03894156       0.23047693      -0.03152000       0.09382817       0.16070595       0.22556692       0.41965133
C        3.84433299       2.07668659       0.13726488      -0.39591120       0.35000002       0.38975387       0.24224696      -0.39576888      -0.63346678
C        5.08089890       3.77494648      -0.03715842      -0.22965630      -0.06502685      -0.34930001      -0.45603773      -1.35841143      -0.09707085
8
Lattice="4.92 2.46 0.0 0.0 4.260844986619438 0.0 0.0 0.0 15.0" Properties=species:S:1:pos:R:3:momenta:R:3:forces:R:3 energy=-15.066095352172852 pbc="T T T"
C        0.22054594      -0.15999670       0.06167922       0.01874166       0.11993583       0.29823076       0.35587060       0.05780363      -0.03342475
C        1.47794573       1.47691137      -0.03033569      -0.58742405       0.09489739      -0.34128381      -0.27278033       0.35639021      -0.24900310
C        1.41681908       2.91880667       0.02598549      -0.07736413       0.85467130       0.32531508      -0.26128748      -0.16370665       0.21479572
C        2.71996926       3.17259580      -0.01088348      -0.14409413      -0.14601206       0.40317719      -0.39341122       0.21453799       0.16754454
C        2.64790345       0.34439363      -0.10741239       0.40685103       0.13103853      -0.57079884      -0.36404142       0.25908616       0.07316717
C        3.93376416       0.63965356      -0.01782910       0.06461227       0.02395503       0.36875445      -0.13645718      -0.19582218       0.11075588
C        3.82995952       2.08179299       0.14666741       0.05207137      -0.27463983      -0.10038525       0.32283923      -0.67241937      -0.29477522
C        5.07309259       3.72865999      -0.06787146       0.26660596      -0.80384639      -0.38300955       0.74926752       0.14412962       0.01093988
